# vtk DataFile Version 4.1
vtk output
ASCII
DATASET POLYDATA
POINTS 1847 float
-11.9563 53.3 -19.3004 -17.1374 46.9318 -19.6869 -23.898 35.5781 -22.5713 
-18.0343 54.4174 -24.1648 -9.61758 53.5471 -16.4352 -15.1474 44.2666 -20.1142 
-25.7621 49.467 -26.7299 -21.1648 37.1725 -19.7362 -10.3846 51.0041 -16.1732 
-22.0423 38.0806 -20.4738 -17.4307 47.7001 -23.375 -22.8859 38.9203 -20.9467 
-14.3592 54.5013 -18.2307 -23.9273 43.3149 -22.6383 -21.8623 48.2983 -23.5617 
-23.9719 52.5143 -28.0485 -23.1797 37.9166 -20.8769 -12.7463 50.7347 -19.5191 
-19.2274 47.9796 -21.8527 -23.168 36.7599 -20.4204 -21.2369 44.9475 -22.2268 
-12.6208 53.7254 -20.4042 -20.8134 38.3313 -19.8836 -18.0821 37.1798 -20.4059 
-24.512 38.3701 -21.1947 -18.2056 51.7927 -25.1885 -16.7609 37.88 -19.3775 
-19.9452 52.3025 -23.3762 -23.0811 42.5758 -22.1755 -24.7754 49.9558 -25.3522 
-19.6707 39.1628 -21.9714 -13.5735 53.5554 -17.5906 -24.7373 40.0751 -21.4599 
-17.8259 31.3091 -18.2157 -21.5519 40.5172 -23.1388 -22.3174 32.7648 -19.0123 
-22.0458 49.4761 -23.8889 -23.1805 49.6415 -27.0769 -15.6875 41.3016 -19.0402 
-21.0969 32.4834 -18.7219 -16.5591 45.8275 -18.8202 -23.4991 50.8136 -27.626 
-21.4448 45.3322 -24.8348 -11.1427 50.689 -15.0348 -21.354 32.1108 -19.8359 
-9.1306 53.3734 -14.9017 -22.849 41.2027 -23.9724 -21.2779 39.3311 -22.7136 
-20.4923 39.8031 -20.2503 -15.3162 52.147 -22.8051 -16.366 47.0189 -18.9461 
-24.3395 44.8062 -25.5875 -15.4668 46.5583 -21.1119 -18.2801 32.8046 -19.147 
-15.0661 45.434 -20.2718 -17.9701 41.9446 -18.9731 -13.166 51.7776 -16.8389 
-15.9854 50.96 -23.1113 -16.7125 46.8935 -22.4249 -22.735 34.0923 -19.5092 
-16.8835 41.1133 -18.2572 -21.8893 43.5748 -22.1309 -9.73095 52.4883 -16.5426 
-12.1608 55.1308 -19.447 -19.7268 42.1125 -22.8588 -22.1522 47.1905 -23.2864 
-16.5305 54.4729 -20.6908 -20.8714 52.6922 -24.0854 -22.7619 32.5331 -20.9838 
-26.01 40.9438 -23.0238 -20.4763 34.9872 -18.7332 -14.446 49.7224 -21.0635 
-13.4255 51.5887 -20.5854 -12.3964 56.3811 -16.8691 -21.8798 47.5865 -25.8202 
-21.0688 54.1039 -24.6207 -23.4029 50.0168 -24.3076 -17.9998 52.9887 -21.9764 
-18.1916 52.8115 -25.4865 -14.695 51.3855 -18.3717 -26.2193 43.6257 -23.9632 
-23.2102 48.7077 -24.0139 -10.1105 52.4872 -13.7339 -23.1759 44.3336 -22.7994 
-18.6046 42.0556 -22.2003 -18.2892 50.8327 -25.0092 -23.1737 34.1129 -20.5778 
-18.0289 36.0209 -20.0355 -22.4061 45.0356 -25.086 -11.0415 54.4382 -18.5812 
-19.8077 37.7729 -21.5843 -13.8857 55.7127 -17.9103 -20.0219 40.6651 -22.5807 
-19.2628 36.4147 -20.9862 -16.5769 42.6528 -18.348 -16.4819 48.0526 -22.6397 
-22.437 38.966 -23.1727 -25.2855 50.4719 -27.3754 -24.267 43.4808 -25.1974 
-12.9463 53.1668 -16.6066 -25.2524 47.0641 -24.3562 -19.9014 45.0957 -24.0016 
-15.0807 53.4537 -19.1944 -18.7488 42.2842 -19.8243 -19.1095 45.9513 -23.9497 
-17.4074 45.7213 -19.726 -16.6071 49.5449 -19.8961 -22.7791 46.051 -25.6547 
-20.1765 42.3502 -20.6915 -17.8859 31.7004 -16.9596 -19.0377 43.1382 -22.8327 
-17.277 53.7167 -21.3793 -22.5797 48.2657 -26.3181 -24.2953 37.2988 -21.2002 
-21.7044 42.7428 -24.0996 -21.1034 36.7619 -21.9748 -12.2585 52.0601 -15.9344 
-21.8378 41.6996 -23.7552 -20.1847 44.5393 -21.446 -15.2026 53.4717 -22.8411 
-25.1935 48.2355 -24.874 -17.8251 43.0806 -19.1615 -15.2908 49.6722 -22.0463 
-18.5123 34.6405 -17.1953 -19.849 51.4699 -26.2379 -16.4119 36.412 -17.5305 
-25.6134 48.5769 -25.9454 -16.0027 45.3905 -21.1757 -19.8202 40.8493 -20.1293 
-19.2576 46.8146 -21.5944 -20.5661 42.9191 -23.688 -17.9326 41.3186 -21.4318 
-15.4825 48.4969 -21.9049 -19.8797 37.4564 -19.1195 -9.45906 52.1384 -15.1236 
-17.6857 46.5552 -23.1924 -19.6624 48.819 -22.4484 -12.1071 50.0708 -16.3042 
-24.9446 46.6933 -23.6162 -15.9842 53.4063 -20.0745 -26.3899 46.1274 -25.6074 
-23.4725 47.2063 -23.6386 -19.5046 32.3274 -19.6917 -16.4566 35.0419 -17.343 
-20.7615 41.5015 -23.1698 -13.6946 47.919 -19.0376 -25.8618 46.0326 -24.2067 
-19.0395 37.0016 -18.2828 -22.0251 52.4821 -24.6747 -13.57 50.2567 -17.0303 
-19.5109 50.2874 -22.7011 -24.4263 45.805 -25.9218 -18.9543 40.2509 -21.9549 
-16.4142 48.1146 -19.1765 -24.192 52.9568 -26.2307 -16.7657 39.9192 -18.0029 
-18.7515 53.6513 -22.7438 -16.8606 41.2796 -20.5932 -17.2532 40.1836 -20.5891 
-26.1498 42.0383 -23.5433 -14.9852 44.3461 -18.9629 -20.548 46.0761 -22.1114 
-18.1442 50.2284 -21.74 -17.2643 48.0444 -20.0642 -19.1041 33.6302 -20.0456 
-18.7339 54.6458 -23.4244 -13.2688 48.9389 -19.304 -24.6351 49.2216 -24.5936 
-17.1011 44.2486 -18.7956 -20.2783 47.5917 -22.4499 -15.3667 55.0838 -22.7929 
-18.0852 49.6869 -24.4358 -18.8341 54.1883 -25.2442 -11.6935 56.3595 -15.6614 
-19.5206 34.7385 -20.6047 -21.0178 35.385 -21.6331 -14.5992 50.2266 -18.0876 
-20.7947 33.8778 -18.6412 -12.9533 55.2262 -20.5038 -20.7268 43.4712 -21.4931 
-14.3724 52.9139 -18.5018 -15.286 43.1836 -19.0144 -16.1548 38.7394 -18.6609 
-22.6951 53.4467 -26.7277 -17.1398 37.5982 -17.435 -23.0245 42.7292 -24.6146 
-17.89 52.0329 -21.7818 -12.2059 53.2524 -15.5016 -19.6657 45.6679 -21.4682 
-16.8172 50.6213 -20.508 -21.7253 39.1468 -20.6204 -11.6234 54.2364 -14.678 
-25.3894 43.7313 -22.8057 -21.0118 36.0415 -19.3937 -15.2965 47.6103 -21.3322 
-19.9868 32.5894 -18.286 -14.395 55.4387 -20.8606 -9.7915 54.4719 -14.6252 
-22.5664 40.2817 -21.2852 -19.1082 38.0905 -18.7057 -20.8402 51.1504 -26.6933 
-17.204 38.7767 -17.7126 -23.8201 40.7346 -21.7478 -19.8638 49.7234 -25.7084 
-16.1583 51.8174 -23.5318 -21.0996 51.6816 -24.0262 -13.5524 49.8715 -20.0641 
-21.3334 37.905 -22.292 -20.541 46.0074 -24.7332 -15.6915 54.3656 -19.7126 
-16.8253 45.7473 -22.1625 -23.2281 53.7985 -25.4577 -17.6306 54.5613 -23.1793 
-16.3097 54.814 -23.5853 -21.9937 45.7244 -22.7288 -12.8832 52.7129 -20.4472 
-11.8696 52.4036 -19.0547 -10.4351 53.4391 -17.699 -15.8509 55.013 -21.6754 
-25.1172 36.4889 -22.6666 -18.46 35.0137 -19.9663 -19.4115 43.4363 -20.4677 
-26.0321 39.8147 -23.6712 -18.3881 49.0836 -21.5946 -19.3325 47.2127 -24.4211 
-23.1383 35.2717 -20.0231 -21.592 42.4836 -21.5038 -22.5867 41.404 -21.7215 
-22.7194 40.1032 -23.5621 -22.3911 37.91 -22.8336 -10.6017 51.3167 -17.1979 
-19.1904 31.5749 -17.3364 -25.4972 39.8826 -22.2363 -21.548 34.7187 -19.2254 
-20.402 52.7477 -26.8855 -14.4598 48.1658 -20.6555 -18.4029 44.2239 -22.8729 
-16.4658 34.0193 -17.1229 -19.1086 48.262 -24.6229 -20.5109 48.5881 -25.5455 
-11.7712 51.1483 -18.7195 -14.359 55.1167 -21.7858 -25.278 50.7093 -26.0806 
-20.2882 50.9959 -23.3982 -14.3706 51.9225 -21.8536 -13.0508 54.9271 -16.7625 
-25.9881 40.8195 -24.2497 -9.45828 55.2574 -15.6699 -25.7757 39.013 -23.0837 
-15.9608 42.3756 -20.2748 -16.9295 42.3886 -21.0462 -16.5281 39.3767 -19.7337 
-16.3859 52.6933 -23.9269 -20.7419 47.4859 -25.2053 -26.3714 44.0513 -25.1535 
-21.3227 53.6441 -26.2966 -15.0663 50.8318 -22.1462 -20.2031 35.8324 -21.2511 
-23.9943 35.7587 -21.022 -13.761 53.6481 -21.502 -25.526 38.7074 -22.1546 
-20.7053 50.1292 -26.369 -22.8473 47.213 -26.2119 -23.988 51.3709 -24.6168 
-14.4476 46.0027 -18.8551 -17.1819 32.8383 -18.4476 -25.6078 42.3264 -22.7769 
-10.9141 52.4175 -17.9587 -19.2631 39.7424 -19.2918 -17.1239 32.48 -15.9451 
-18.1576 47.9524 -21.0533 -16.4319 36.7232 -18.6813 -11.7579 49.9737 -17.4952 
-14.4113 47.0218 -20.1769 -25.2353 45.6912 -23.3705 -24.3849 42.2267 -22.2797 
-17.9675 46.7096 -20.5278 -16.6035 52.4413 -20.5819 -16.195 49.6412 -22.8383 
-22.0913 54.0033 -25.6525 -17.5602 38.3392 -20.2579 -15.5121 50.4791 -19.0677 
-17.428 49.0744 -20.6874 -17.0776 55.1834 -22.0026 -25.6588 47.1805 -25.3379 
-23.7276 45.7327 -23.3613 -25.0092 41.1945 -22.2369 -22.7529 43.6401 -24.8847 
-14.9383 47.8262 -18.1348 -21.3846 50.6269 -23.9303 -12.1095 56.1012 -18.6264 
-15.9836 40.1398 -19.0316 -23.7477 52.6585 -24.9914 -19.6483 53.5957 -26.6607 
-24.9684 47.2602 -26.4884 -15.9773 51.0926 -19.7979 -15.325 52.5571 -19.4023 
-25.3617 42.4244 -24.8146 -18.0905 33.4712 -16.5858 -10.5103 55.6684 -16.6083 
-21.3644 52.5511 -27.448 -20.5686 49.8416 -23.3869 -17.0558 50.1166 -23.7911 
-22.4607 52.8691 -27.9178 -19.707 53.2771 -23.3975 -21.6188 48.6399 -25.9959 
-24.2901 37.6241 -23.3352 -18.6766 38.3911 -21.188 -21.6442 34.4219 -21.6133 
-10.4728 56.2637 -14.7618 -15.721 55.6599 -20.6057 -17.2307 52.4191 -24.659 
-14.5222 52.857 -22.1371 -18.2158 39.508 -21.1564 -17.0423 51.5156 -24.2251 
-17.1354 44.5919 -21.9945 -23.1191 36.893 -22.844 -24.4965 51.6665 -25.3605 
-19.8014 36.3164 -18.722 -12.4129 50.0265 -18.8924 -22.0811 50.6025 -27.1227 
-13.687 48.6902 -17.7977 -26.122 44.6352 -23.8451 -24.6525 48.3199 -24.069 
-18.8361 45.3179 -20.6705 -20.9503 40.9191 -20.7297 -20.8212 33.4849 -20.9436 
-23.5298 39.5365 -23.6869 -13.7042 52.7327 -17.6264 -16.5276 43.8641 -21.3007 
-17.2843 48.8721 -23.5448 -16.5866 53.9047 -24.3743 -18.9768 35.9564 -17.9234 
-23.8654 48.21 -26.7222 -16.7161 35.6398 -18.975 -22.2727 36.0373 -22.3514 
-17.4287 43.1699 -21.6979 -15.1311 48.9668 -18.4488 -19.2163 33.008 -17.397 
-20.1008 43.9582 -23.8152 -19.2096 54.4696 -24.3368 -11.6659 55.0186 -15.1664 
-18.7589 52.3329 -22.5058 -9.75542 54.6739 -16.8698 -18.896 41.1931 -19.4968 
-24.0228 40.6075 -24.1425 -19.6942 34.2679 -18.1272 -14.2133 50.8932 -21.2763 
-16.7779 34.6513 -18.7011 -18.0817 35.5763 -17.1475 -25.5137 52.0893 -27.0998 
-14.8206 56.0581 -19.814 -18.0018 45.378 -22.9778 -18.1588 44.5757 -19.9045 
-20.5179 53.9622 -25.3302 -21.724 43.8082 -24.3306 -23.3268 34.5726 -22.0378 
-18.7018 51.4029 -22.2795 -20.7577 48.5657 -23.1902 -21.4492 46.4939 -25.2753 
-26.3012 45.0926 -25.1512 -23.7108 41.8036 -24.5909 -21.6816 49.7393 -26.5817 
-22.2 51.3743 -24.3939 -13.3657 55.9756 -19.7311 -17.9552 33.9922 -19.4036 
-22.1306 35.8443 -19.821 -18.3186 40.4275 -18.753 -16.3906 32.3937 -17.2524 
-18.1356 36.5692 -17.3871 -18.2727 39.2168 -18.4575 -10.4284 55.3696 -17.706 
-12.6804 53.954 -16.4338 -11.1824 52.6801 -14.6977 -31.1926 48.7049 -21.3672 
-24.8663 39.0506 -21.2102 -24.3876 29.7131 -16.2507 -31.559 52.7713 -20.9574 
-27.6611 40.3856 -18.8319 -29.174 40.9068 -21.9267 -29.8489 49.8724 -23.2714 
[...]
POINT_DATA 1847
FIELD FieldData 2
InitialMomentum 3 1847 double
0.40393313766 -0.4789659977 -0.16018624604 -0.14725753665 0.095332108438 0.141701594 0.037466093898 -0.011473855935 0.0099104754627 
-0.080416709185 0.41926443577 0.14951942861 0.029521111399 -0.47368359566 -0.59604912996 -0.29135978222 0.014297106303 -0.096606113017 
-0.1572804302 -0.26385456324 0.13063040376 -0.25636184216 0.10416675359 -0.16574384272 -0.19556996226 0.3538274467 0.61977648735 
-0.073714509606 0.15872552991 0.076363705099 -0.18510189652 -0.13090617955 -0.11991023272 0.24101251364 -0.0066011501476 -0.053520061076 
0.1565990895 0.086750254035 0.0044691665098 0.31608816981 -0.045123748481 -0.026118282229 0.046274829656 -0.14020176232 -0.27724638581 
-0.41478595138 0.16377368569 -0.25593107939 -0.020372968167 0.13900256157 0.0091199520975 -0.056556515396 0.09450828284 0.0097680557519 
-0.10208106786 -0.026954932138 0.17897377908 0.0004210639454 0.15380945802 0.13996019959 -0.14343594015 0.16860386729 0.13523125648 
-0.12482037395 -0.34498393536 0.21602679789 -0.3073554337 -0.013788662851 -0.091254241765 -0.13505363464 0.18678596616 0.027499524876 
-0.020384835079 -0.048755507916 -0.22964097559 -0.031248977408 -0.057339437306 -0.084986180067 -0.019273694605 0.24459147453 0.19022914767 
0.010347236879 -0.12684623897 -0.19513602555 -0.046187706292 -0.067780166864 -0.091525226831 -0.034341320395 -0.058550287038 -0.12553212047 
0.047069385648 -0.15938448906 -0.14994123578 -0.51079291105 -0.037272207439 0.013619437814 0.22033283114 -0.021365579218 -0.38846114278 
-0.12001917511 -0.25533539057 0.036746606231 0.0030816509388 0.15938791633 0.18782925606 -0.011727788486 -0.058751616627 -0.15630120039 
0.041564829648 -0.2070402056 0.13853833079 -0.032488379627 -0.14097683132 -0.21837230027 -0.038956757635 0.04312331602 0.09536011517 
-0.10867019743 0.34638217092 -0.15601082146 0.042533904314 -0.056614886969 0.29090338945 0.084467202425 -0.027234792709 -0.2310244292 
-0.13889326155 0.015428573824 0.11992188543 -0.59022736549 -1.0488917828 0.73776036501 -0.085903704166 -0.0056252367795 0.017321486026 
0.095177732408 -0.28490719199 0.082531407475 -0.15711949766 0.063168302178 0.3238709569 0.2704667151 0.041542265564 -0.0077647673897 
-0.075824230909 -0.082234896719 0.14319588244 -0.051855187863 0.25269922614 -0.07436427474 -0.16823467612 -0.15607099235 0.16556689143 
-0.20394800603 -0.1218419224 -0.079929284751 0.08922675997 0.27579373121 0.16718165576 0.13344222307 -0.086410589516 -0.22268514335 
-0.34038770199 0.25682905316 0.051084313542 -0.1428386867 -0.0015725743724 -0.21357381344 -0.13246499002 0.54512619972 0.40008196235 
-0.16230803728 0.057014513761 0.12325576693 -0.05807774514 -0.038835052401 -0.060391630977 -0.11502470076 -0.19881077111 -0.22169804573 
-0.17895424366 -0.20642977953 -0.077518701553 -0.20618051291 -0.0062269414775 -0.0099921738729 0.033818926662 0.25930553675 -0.41188773513 
-0.39334386587 0.27192518115 0.27076283097 -0.20408052206 0.092428974807 -0.15058094263 -0.034996252507 -0.040332455188 -0.45135506988 
0.20084133744 0.055387411267 0.097060710192 -0.025033231825 -0.054502341896 -0.1557700336 -0.056900385767 -0.43652513623 0.14822989702 
-0.30933687091 -0.11129517853 0.16507057846 0.093181788921 -0.04875158146 0.1488288343 -0.28714120388 -0.27042469382 0.21372634172 
-0.016331581399 -0.26983502507 0.28376200795 0.34864726663 -0.10356461257 -0.028298364952 -0.23917818069 0.033096950501 0.15520259738 
0.084279701114 -0.26775550842 0.11851684004 0.25106266141 -0.3379727602 0.25494092703 -0.36293277144 0.075333043933 0.20036795735 
-0.05541517958 -0.1786454767 -0.21265664697 -0.21394631267 -0.0050814114511 -0.094819635153 -0.087761700153 0.096512943506 -0.10922182351 
0.36438667774 -0.30462756753 -0.0077706584707 -0.63387745619 -0.15780173242 1.9391194582 0.010457357392 0.066302575171 0.14841030538 
-0.12886336446 0.096747584641 0.22656346858 -0.10144444555 0.065560974181 0.1317730099 -0.32463648915 -0.16822363436 0.053510066122 
-0.12896308303 0.063294783235 0.010610018857 -0.070842169225 -0.066106148064 0.23123903573 0.12209402025 -0.19163089991 0.12943735719 
-0.087277635932 0.015518221073 -0.25778475404 0.93849378824 -0.056100189686 -0.21028390527 -0.058357663453 0.17079181969 0.00067530479282 
-0.093679197133 0.16990242898 0.067697398365 -0.17902851105 0.080914869905 0.48295968771 -0.047106418759 -0.05453556031 -0.17313197255 
-0.010605646297 -0.075869895518 -0.035482678562 0.0049409302883 -0.36906790733 0.14391185343 -0.10670644045 0.20966392756 -0.34516075253 
-0.30553552508 0.21843141317 -0.073728740215 0.093788199127 0.010256594978 0.05428340286 -0.16938841343 0.14423817396 0.0083881346509 
-0.13517670333 -0.057171206921 -0.095942273736 0.11971180886 0.0071038058959 -0.12656365335 -0.10887570679 0.14039605856 0.088446803391 
-0.09836166352 0.15687859058 -0.085885353386 -0.059564471245 0.065978161991 -0.11069244891 -0.17145612836 0.12704157829 0.14879895747 
-0.042384125292 -0.039483252913 -0.0017993195215 -0.022339945659 0.15871441364 -0.13464979827 -0.081566728652 0.040925193578 0.007396500092 
-0.41254225373 0.18085061014 0.24921013415 -0.28200134635 -0.021166859195 0.0023821007926 -0.24010927975 0.018206819892 0.048163693398 
0.15402242541 -0.13522394001 -0.0066668298095 0.0092753600329 0.20366759598 0.041653197259 0.68276685476 0.58362615108 -0.31830742955 
-0.029499873519 0.055680718273 0.20147995651 0.16443166137 -0.020922569558 0.099726781249 -0.074918605387 0.07758140564 -0.30622187257 
-0.042131554335 0.24187937379 -0.088125541806 -0.33138245344 0.081327490509 -0.067529201508 -0.079435758293 0.033248119056 0.012847348116 
-0.29699826241 -0.10936889052 -0.053878508508 -0.022704439238 0.19970756769 -0.10707160085 0.15173666179 0.0096277203411 0.098468959332 
-0.2358174324 0.15824560821 -0.051140736789 -0.17094914615 0.22251798213 -0.037503678352 0.10051641613 -0.00056713749655 0.064063556492 
-0.10992480069 -0.110626176 0.15041473508 -0.059912934899 -0.059099584818 -0.37099385262 -0.13560572267 0.18820792437 0.20205409825 
0.10720558465 0.077623516321 -0.10972197354 -0.15193529427 0.050214901567 -0.22097739577 0.30645415187 0.38933625817 0.62359619141 
-0.18382503092 -0.071330405772 0.038738057017 -0.084155678749 0.12139128894 0.085372537374 -1.1941622496 -2.4669191837 0.77263456583 
0.12079370767 -0.069779604673 0.045723088086 0.082776471972 0.10409429669 -0.12242693454 -0.049229826778 -0.22263972461 0.0811990574 
0.27932500839 -0.12582778931 -0.34994035959 -0.076766252518 0.54211699963 -0.0025663173292 0.5150193572 -0.24520081282 0.23098003864 
-0.13696911931 0.143296808 -0.09075974673 -0.88507467508 0.49634629488 -0.30444014072 -0.07271591574 -0.14721427858 0.18664617836 
0.1771992594 0.082173496485 -0.12510275841 0.0080109881237 0.074187770486 -0.11311252415 0.4846251905 0.72954189777 0.54374974966 
-0.078243628144 0.04949792847 0.044679615647 -0.01071601361 -0.067890875041 -0.11938881874 -0.13088159263 0.0060699535534 0.062271397561 
-0.2120475024 -0.17447462678 -0.10051833838 0.091635510325 0.24929247797 -0.19596393406 -0.12740431726 -0.25384181738 -0.12521795928 
-0.058773227036 -0.062369182706 -0.077906504273 -0.22393496335 0.30899405479 -0.067802123725 -0.15535783768 0.083744995296 -0.012411734089 
-0.28246447444 0.015448738821 0.39027297497 0.11875421554 -0.18723477423 0.026016436517 -0.092883855104 0.035554885864 0.074645377696 
0.15828815103 -0.019315365702 -0.038710445166 -0.1238823235 0.090631037951 0.024551771581 0.1958719939 0.23872902989 0.096270985901 
0.0058176186867 0.18733805418 0.021662799641 -0.75374519825 0.50228238106 -0.092395320535 0.11347305775 0.0055369348265 0.0274849087 
-0.17919398844 0.077740006149 0.25012421608 -0.16307502985 0.058734055609 0.0017109261826 -0.18815377355 -0.43838968873 -0.05858015269 
-0.14460730553 0.055056028068 0.10102945566 -0.20995672047 0.30332291126 0.26784545183 -0.12883530557 0.13106712699 0.45500543714 
0.10131441057 -0.024311292917 0.32528299093 -0.088264912367 -0.17387399077 0.015195352957 0.1997102797 0.48409554362 -0.15176075697 
-0.11304128915 0.3836068511 -0.0040293573402 -0.98142081499 -0.036485750228 0.3294275105 -0.106084764 -0.044518087059 0.0055366847664 
-0.53787267208 -0.082093007863 -0.026432609186 0.16221925616 0.02747929655 0.34797862172 -0.011868683621 -0.019962966442 0.12939848006 
0.040879417211 0.14780248702 0.074952058494 0.077704623342 0.22529858351 -0.018594648689 0.20180901885 0.032795857638 0.16788208485 
-0.19682852924 0.092572130263 0.22718308866 0.59578490257 0.45723515749 -0.76612722874 0.12506170571 -0.09850679338 0.049721289426 
-0.041845843196 0.26371979713 0.11319322139 0.042050532997 -0.0050210510381 0.15868276358 0.18943049014 -0.093855120242 -0.44015169144 
0.40605020523 -0.056728657335 -0.030898425728 -0.023018328473 -0.08648147434 -0.024451572448 0.16175724566 0.14255280793 0.053250398487 
-0.072183467448 0.23786863685 0.05253316462 -0.44093990326 -0.022892029956 0.32336211205 0.03194514662 0.04059805721 0.18951112032 
0.081469468772 0.01656870544 0.036862973124 -0.021994510666 0.18616066873 0.013660668395 -0.068868607283 0.35495877266 -0.015774348751 
-0.035380337387 0.087542407215 -0.051959257573 0.087358243763 0.0062823351473 -0.17169035971 -0.001137637184 0.037854686379 0.1361207962 
-0.049135323614 -0.0004845194635 0.04218108952 -0.19886450469 0.14757736027 -0.018897511065 -0.45387923717 -0.2657315731 0.19457618892 
0.16081085801 0.11297925562 -0.078538067639 -0.1370434463 0.10801160336 0.051480844617 0.3305067122 0.083078712225 -0.0094929225743 
-0.11580994725 0.013058387674 -0.033052492887 -0.017580633983 -0.20624056458 0.10183860362 -0.058250427246 0.073133841157 0.062250543386 
-0.26121729612 -0.29489332438 0.13549411297 -0.26766368747 0.19000735879 -0.040875963867 0.1340597719 -0.32826974988 0.20867200196 
0.51066708565 -0.37915483117 -0.42177656293 0.0092806220055 -0.60566228628 -0.42814701796 0.26429530978 -0.10676718503 -0.0043559875339 
-0.10469237715 -0.24189598858 0.17153450847 0.12209866196 -0.22639773786 0.067827410996 0.2128726095 -0.11226832122 -0.04416636005 
0.13852745295 -0.14224809408 0.062699697912 0.11062932014 0.0027723857202 -0.022428408265 0.11877796054 0.062821403146 -0.19978572428 
0.19155918062 -0.12690456212 -0.047497324646 -0.38927453756 -0.070500999689 -0.17646710575 -0.2315775454 0.025942709297 -0.046473287046 
-0.13736447692 -0.028099616989 0.19496451318 -0.11410696805 0.05471206829 -0.012780181132 -0.74366730452 0.86366903782 0.28080645204 
0.26453626156 -0.57141470909 0.071661874652 0.15558347106 -0.028405850753 -0.091430522501 -0.022186454386 -0.10267250985 -0.12840092182 
0.054155535996 -0.24260549247 -0.17840059102 -0.39807218313 -0.06593003124 0.093883268535 -0.0054088789038 0.036985587329 0.13990393281 
0.68639302254 -0.016270834953 0.37876191735 0.18308882415 0.012767300941 -0.26136788726 0.066188670695 -0.20965395868 0.021706722677 
0.021446935833 0.31711238623 -0.33486637473 -0.39859315753 -0.19127333164 -0.022740976885 -0.13079288602 0.01571697183 -0.0080962590873 
-0.25243845582 0.14683873951 0.040003892034 -0.12195717543 0.276599437 0.11599370837 0.0065113701858 -0.49162659049 0.16813986003 
-0.13861684501 -0.31163713336 -0.19530116022 0.1188121289 0.58879774809 0.13245983422 0.17782601714 0.032493222505 0.1805653125 
-0.28180003166 0.26174980402 -0.023409528658 -0.2298257798 0.16567584872 0.061762057245 -0.010102272965 -0.051746103913 0.064207449555 
0.039684835821 -0.094425775111 -0.10167404264 0.029810285196 -0.075759358704 -0.057406395674 -0.40756472945 0.39140328765 -0.28424572945 
0.14959315956 0.01766118221 0.2057364583 -0.12394940853 0.12838436663 0.16444210708 -0.078680381179 0.056161768734 0.20406256616 
0.14312289655 0.070446141064 0.034013494849 -0.27390798926 0.15171948075 -0.057069286704 0.11748036742 0.026392048225 0.068640567362 
-0.13130217791 0.16624100506 0.20063982904 -0.26050919294 0.24312114716 -0.010320602916 0.15586709976 -0.12568596005 -0.10858878493 
-0.50558716059 0.03270079568 -0.33846741915 -0.31228658557 0.19608516991 -0.14352096617 -0.071522153914 0.099707618356 0.33617573977 
0.017880428582 -0.10961092263 -0.57618707418 0.02372286655 -0.033577252179 0.066788993776 0.13098737597 0.5059838891 -0.15260404348 
-0.070368170738 0.050855785608 0.06336248666 -0.31479841471 0.30610823631 0.071362771094 -0.71341115236 0.047701921314 0.31819519401 
-0.52454131842 0.19490881264 0.17440521717 -0.034194715321 -0.10423336923 0.089379169047 0.10094851255 0.042702205479 -0.018370887265 
-0.16220410168 0.1088450253 -0.034992296249 -0.26583895087 0.35690495372 0.17178173363 -0.1750613898 0.0057243290357 -0.05665801838 
0.095856532454 -0.12842899561 0.3004295826 -0.060130260885 -0.018983885646 0.13514664769 0.013883864507 -0.21045382321 -0.13933452964 
0.07754855603 0.14632026851 -0.10685883462 0.029165836051 -0.28846532106 0.23732878268 -0.099261038005 0.13580669463 0.082697272301 
-0.061648149043 -0.027830230072 -0.011648124084 -0.15926489234 0.066892549396 -0.043606877327 0.19996786118 -0.094654925168 0.2194198072 
-0.1515930593 0.1836950779 -0.47011613846 -0.20372131467 0.10335338861 0.16333083808 0.32585081458 0.7357673645 -0.13239389658 
-0.047111146152 -0.14638227224 -0.0043827379122 0.075676888227 -0.062681011856 -0.27481856942 -0.16922062635 -0.44861614704 -0.02155691199 
0.1702003926 0.25321036577 -0.38051715493 -0.078592695296 -0.00044257042464 0.044064152986 -0.087080508471 -0.16277177632 -0.16345389187 
-0.19315761328 0.19191153347 -0.78718364239 -0.20661921799 0.54842323065 -0.021052474156 -0.053626213223 0.74135017395 0.1719969362 
-0.058339200914 -0.23143555224 -0.096962623298 -0.2369120121 0.21420134604 0.08678586781 -0.30604150891 -0.055555094033 0.17313158512 
-0.34734585881 -0.25008440018 -0.037187278271 0.15626311302 -0.15968152881 -0.26236829162 -0.19787219167 -0.1864054054 0.18052554131 
-0.49494645 -0.11732635647 0.14283490181 -0.20997492969 -0.19877013564 -0.11822024733 -0.39189216495 -0.42828950286 -0.29001495242 
0.35819047689 0.65880966187 0.31571835279 0.40747615695 -0.016011040658 0.3890144527 0.025219596922 -0.1333155632 -0.074833713472 
-0.11127559096 0.40255695581 -0.17208020389 -0.19017030299 -0.17756178975 0.036699026823 -0.098289951682 -0.089216083288 0.1428450048 
-0.083019092679 -0.066174887121 -0.013015855104 -0.27167630196 0.026618080214 0.12733864784 0.17912887037 0.11325312406 -0.34437561035 
0.16141526401 -0.12863743305 -0.11038989574 -0.32702749968 0.8591940403 -0.098384216428 -0.1252386272 0.26523041725 -0.075912438333 
0.27426934242 1.3822895288 -0.32827633619 -0.090029239655 0.011794803664 -0.086831480265 0.24610885978 0.076711080968 -0.017920542508 
0.13945914805 -0.083753123879 -0.27246984839 -0.1811965555 0.023824786767 0.070067927241 -0.5077816844 0.097134530544 -0.16214454174 
-0.26609760523 -0.15921995044 -0.043451424688 -0.63912886381 0.13100758195 0.082538284361 -0.26667660475 -0.018531735986 -0.056310363114 
-0.24164894223 -0.099890813231 -0.079449899495 -0.16273677349 -0.12490486354 0.060897748917 0.10235474259 -0.24439585209 -0.15962228179 
-0.032736606896 0.020818848163 -0.3973954916 -0.67954838276 0.038719199598 -0.15551623702 0.047544557601 -0.032189458609 0.0012500752928 
-0.044946562499 -0.062441028655 0.1619437784 0.037022858858 0.13171952963 -0.37691643834 -0.071681655943 -0.067036963999 0.065131492913 
-0.11569948494 0.035648114979 -0.24569311738 0.010628378019 0.37052673101 0.13960589468 -0.21120163798 -0.051785793155 0.25266361237 
-0.002298413543 -0.18244534731 -0.01523257792 -0.22667115927 -0.29759034514 -0.11676718295 0.21530026197 -0.007318334654 -0.15084566176 
-0.32518285513 -0.11376996338 -0.14272169769 -0.0019914258737 -0.028335375711 0.14570948482 -0.17162552476 -0.16500377655 0.31139567494 
-0.61938607693 -0.14987973869 -0.18520101905 -0.01793137379 -0.22795504332 -0.15480788052 -0.070785544813 0.27886283398 0.099061086774 
0.20861674845 0.30607643723 0.51307624578 -0.10150174052 0.010781260207 0.14073352516 -0.084493979812 0.030410796404 -0.33244585991 
0.051724776626 0.023696435615 0.24934796989 0.13260857761 -0.1675439775 -0.0010850095423 -0.13519525528 -0.035297192633 -0.075123593211 
0.04692639038 -0.17961658537 0.033556614071 -0.13236913085 0.12246194482 -0.1361938566 -0.17896404862 0.10356256366 0.14612986147 
-0.22492665052 -0.052258510143 -0.081171371043 -0.096438638866 0.12238615751 -0.11418420821 -0.21363058686 0.055810809135 0.14946237206 
-0.0067352326587 0.020107237622 0.018997883424 -0.38767060637 0.38834786415 0.28351888061 -0.046267319471 -0.33605790138 -0.27072158456 
0.10340489447 -0.12632998824 0.013089155778 0.05075525865 -0.069018341601 -0.20115560293 0.031177988276 0.42147284746 0.31916308403 
0.14873529971 -0.018125902861 -0.19956037402 0.010828861035 0.11294853687 0.022424932569 0.0028647130821 0.32783016562 0.0302692689 
-0.23485732079 -0.19762904942 -0.046074587852 0.42451637983 0.68657928705 -0.47138696909 -0.14837603271 -0.044208463281 0.038011524826 
0.16960117221 -0.078905619681 -0.35965311527 -0.32449907064 0.15847675502 -0.15470817685 -0.64812445641 -0.39157286286 0.215076074 
-0.030392030254 -0.10242268443 0.013671422377 -0.33498087525 -0.058304235339 -0.24675223231 0.11935462803 0.044908311218 0.29394307733 
0.068521268666 -0.060918945819 -0.19389504194 0.023838995025 0.13586290181 -0.19078288972 -0.15164358914 0.026541458443 0.14214758575 
0.1755246371 0.040563616902 -0.11166407913 -0.038441538811 -0.14878734946 0.182124421 -0.0035513155162 -0.1072306782 0.097447216511 
-0.21197079122 -0.017014317214 0.088063195348 -0.21928556263 0.028908552602 -0.10464196652 0.066505841911 0.21790979803 0.12361684442 
-0.21614326537 0.037696145475 -0.11956638098 -0.22953361273 0.072294704616 -0.17895554006 -0.22223572433 0.10712590069 0.16170850396 
-0.25367748737 -0.12809948623 0.12801942229 -0.14361397922 0.073548413813 0.040167022496 0.58650630713 0.2605548501 -0.27670779824 
-0.26829817891 -0.20030522346 -0.025054166093 -0.0079625705257 -0.045815940946 -0.030009385198 0.23942258954 0.081247098744 0.13213521242 
-0.016012685373 -0.048599686474 0.1317371428 0.14540348947 0.11786971241 -0.079033799469 0.30133095384 -0.15470866859 0.06615947932 
-0.096165813506 -0.030571008101 -0.0031968790572 -0.18908931315 0.089530445635 0.14685900509 -0.074337363243 -0.05625539273 -0.0042353793979 
-0.11670974642 0.12778896093 0.35633867979 -0.015153931454 0.19718690217 -0.1827930212 0.0084383795038 -0.070282824337 -0.24418367445 
-0.22956484556 -0.0041212020442 -0.22922128439 -0.39562508464 -0.099259488285 0.041828054935 0.035656567663 0.042768552899 0.15479874611 
-0.064732678235 -0.11223042756 0.17725023627 0.087483718991 -0.073795966804 -0.020107159391 -0.15392933786 -0.14824074507 -0.023724695668 
0.13742148876 -0.21249559522 -0.069633923471 0.045987792313 -0.27179172635 0.043607730418 0.20827323198 0.0074292267673 0.072340324521 
-0.1824195534 -0.039558637887 0.044372856617 -0.036403857172 0.0031517231837 -0.20572400093 0.078488208354 0.075714640319 -0.26136243343 
0.25520271063 -0.044481620193 -0.24894228578 -0.1136463806 -0.057900991291 0.25347316265 -0.2034843117 -0.20923519135 -0.28954127431 
-0.016157852486 0.18596991897 0.21024170518 -0.088467463851 -0.076896466315 -0.37139895558 0.071076750755 -0.13264155388 -0.0094250105321 
0.15793992579 -0.011614161544 -0.2197073549 0.32225069404 -0.18340085447 0.0080219535157 0.015947535634 -0.0926168859 -0.08449716866 
0.15771444142 0.012095139362 -0.081401862204 -0.036032427102 0.21960540116 -0.085606791079 -0.116248779 -0.10485584289 -0.051888149232 
0.3390275836 -0.089958898723 -0.14875796437 -0.054328218102 -0.11904742569 -0.060398574919 -0.14910463989 0.073783837259 -0.30173709989 
0.040051624179 -0.059883210808 0.047521505505 0.20612370968 -0.23132491112 -0.050594534725 -0.064097709954 0.1889270097 0.051579870284 
0.056208886206 0.078561082482 0.027720907703 0.058681830764 -0.20342615247 -0.34301275015 -0.047167148441 0.14112009108 -0.053425170481 